# vtk DataFile Version 3.0
N-Body Simulation
ASCII
DATASET POLYDATA
POINTS 2 float
7.069589e-01 -8.901296e-01 -7.207634e-02
-3.443054e-01 1.131055e-01 -4.248541e-01

POINT_DATA 2
SCALARS charge float 1
LOOKUP_TABLE default
2.640218e+00
7.277022e+00
