# vtk DataFile Version 3.0
N-Body Simulation
ASCII
DATASET POLYDATA
POINTS 2 float
2.280145e+06 -2.175972e+06 7.651586e+05
-3.443054e-01 -2.280144e+06 2.175972e+06

POINT_DATA 2
SCALARS charge float 1
LOOKUP_TABLE default
2.640218e+00
7.277022e+00
