# vtk DataFile Version 3.0
N-Body Simulation
ASCII
DATASET POLYDATA
POINTS 2 float
5.863228e+06 -5.595357e+06 1.967554e+06
-3.443054e-01 -5.863228e+06 5.595356e+06

POINT_DATA 2
SCALARS charge float 1
LOOKUP_TABLE default
2.640218e+00
7.277022e+00
