# vtk DataFile Version 3.0
N-Body Simulation
ASCII
DATASET POLYDATA
POINTS 2 float
8.469100e+06 -8.082189e+06 2.842019e+06
-3.443054e-01 -8.469100e+06 8.082188e+06

POINT_DATA 2
SCALARS charge float 1
LOOKUP_TABLE default
2.640218e+00
7.277022e+00
