# vtk DataFile Version 3.0
N-Body Simulation
ASCII
DATASET POLYDATA
POINTS 2 float
6.949008e+06 -6.631537e+06 2.331915e+06
-3.443054e-01 -6.949008e+06 6.631536e+06

POINT_DATA 2
SCALARS charge float 1
LOOKUP_TABLE default
2.640218e+00
7.277022e+00
