# vtk DataFile Version 3.0
N-Body Simulation
ASCII
DATASET POLYDATA
POINTS 2 float
9.772052e+05 -9.325598e+05 3.279251e+05
-3.443054e-01 -9.772050e+05 9.325590e+05

POINT_DATA 2
SCALARS charge float 1
LOOKUP_TABLE default
2.640218e+00
7.277022e+00
