# vtk DataFile Version 3.0
N-Body Simulation
ASCII
DATASET POLYDATA
POINTS 2 float
3.447382e+07 -3.289839e+07 1.156844e+07
-3.443054e-01 -3.447382e+07 3.289839e+07

POINT_DATA 2
SCALARS charge float 1
LOOKUP_TABLE default
2.640218e+00
7.277022e+00
