# vtk DataFile Version 3.0
N-Body Simulation
ASCII
DATASET POLYDATA
POINTS 2 float
4.343139e+05 -4.144716e+05 1.457445e+05
-3.443054e-01 -4.343132e+05 4.144703e+05

POINT_DATA 2
SCALARS charge float 1
LOOKUP_TABLE default
2.640218e+00
7.277022e+00
