# vtk DataFile Version 3.0
N-Body Simulation
ASCII
DATASET POLYDATA
POINTS 2 float
4.777448e+06 -4.559177e+06 1.603191e+06
-3.443054e-01 -4.777448e+06 4.559176e+06

POINT_DATA 2
SCALARS charge float 1
LOOKUP_TABLE default
2.640218e+00
7.277022e+00
