# vtk DataFile Version 3.0
N-Body Simulation
ASCII
DATASET POLYDATA
POINTS 2 float
1.319224e+07 -1.258957e+07 4.426985e+06
-3.443054e-01 -1.319224e+07 1.258957e+07

POINT_DATA 2
SCALARS charge float 1
LOOKUP_TABLE default
2.640218e+00
7.277022e+00
