# vtk DataFile Version 3.0
N-Body Simulation
ASCII
DATASET POLYDATA
POINTS 2 float
7.600488e+05 -7.253246e+05 2.550529e+05
-3.443054e-01 -7.600482e+05 7.253235e+05

POINT_DATA 2
SCALARS charge float 1
LOOKUP_TABLE default
2.640218e+00
7.277022e+00
