# vtk DataFile Version 3.0
N-Body Simulation
ASCII
DATASET POLYDATA
POINTS 2 float
9.663458e+06 -9.221987e+06 3.242815e+06
-3.443054e-01 -9.663458e+06 9.221986e+06

POINT_DATA 2
SCALARS charge float 1
LOOKUP_TABLE default
2.640218e+00
7.277022e+00
