# vtk DataFile Version 3.0
N-Body Simulation
ASCII
DATASET POLYDATA
POINTS 2 float
2.334441e+07 -2.227775e+07 7.833751e+06
-3.443054e-01 -2.334441e+07 2.227775e+07

POINT_DATA 2
SCALARS charge float 1
LOOKUP_TABLE default
2.640218e+00
7.277022e+00
