# vtk DataFile Version 3.0
N-Body Simulation
ASCII
DATASET POLYDATA
POINTS 2 float
8.143366e+06 -7.771335e+06 2.732711e+06
-3.443054e-01 -8.143366e+06 7.771334e+06

POINT_DATA 2
SCALARS charge float 1
LOOKUP_TABLE default
2.640218e+00
7.277022e+00
