# vtk DataFile Version 3.0
N-Body Simulation
ASCII
DATASET POLYDATA
POINTS 2 float
8.089076e+06 -7.719526e+06 2.714493e+06
-3.443054e-01 -8.089076e+06 7.719525e+06

POINT_DATA 2
SCALARS charge float 1
LOOKUP_TABLE default
2.640218e+00
7.277022e+00
