# vtk DataFile Version 3.0
N-Body Simulation
ASCII
DATASET POLYDATA
POINTS 2 float
7.654764e+06 -7.305054e+06 2.568749e+06
-3.443054e-01 -7.654764e+06 7.305053e+06

POINT_DATA 2
SCALARS charge float 1
LOOKUP_TABLE default
2.640218e+00
7.277022e+00
