# vtk DataFile Version 3.0
N-Body Simulation
ASCII
DATASET POLYDATA
POINTS 2 float
7.274742e+06 -6.942391e+06 2.441223e+06
-3.443054e-01 -7.274742e+06 6.942390e+06

POINT_DATA 2
SCALARS charge float 1
LOOKUP_TABLE default
2.640218e+00
7.277022e+00
