# vtk DataFile Version 3.0
N-Body Simulation
ASCII
DATASET POLYDATA
POINTS 2 float
1.791542e+06 -1.709693e+06 6.011961e+05
-3.443054e-01 -1.791542e+06 1.709692e+06

POINT_DATA 2
SCALARS charge float 1
LOOKUP_TABLE default
2.640218e+00
7.277022e+00
