# vtk DataFile Version 3.0
N-Body Simulation
ASCII
DATASET POLYDATA
POINTS 2 float
2.546172e+07 -2.429826e+07 8.544253e+06
-3.443054e-01 -2.546172e+07 2.429826e+07

POINT_DATA 2
SCALARS charge float 1
LOOKUP_TABLE default
2.640218e+00
7.277022e+00
