# vtk DataFile Version 3.0
N-Body Simulation
ASCII
DATASET POLYDATA
POINTS 2 float
7.491898e+06 -7.149627e+06 2.514095e+06
-3.443054e-01 -7.491898e+06 7.149626e+06

POINT_DATA 2
SCALARS charge float 1
LOOKUP_TABLE default
2.640218e+00
7.277022e+00
