# vtk DataFile Version 3.0
N-Body Simulation
ASCII
DATASET POLYDATA
POINTS 2 float
2.171573e+05 -2.072363e+05 7.287220e+04
-3.443054e-01 -2.171565e+05 2.072350e+05

POINT_DATA 2
SCALARS charge float 1
LOOKUP_TABLE default
2.640218e+00
7.277022e+00
